
FAST Summary File

Predictions were generated on 22-May-2019 at 23:24:14 using FAST (v8.16.00a-bjj, 27-Jul-2016), compiled as a DLL S-Function for Simulink as a 64-bit application using single precision
  compiled with
    NWTC Subroutine Library (v2.09.00, 23-Jul-2016)
    ElastoDyn (v1.04.00a-bjj, 26-Jul-2016)
    BeamDyn (unknown version, unknown date) [not called]
    InflowWind (v3.03.00, 26-Jul-2016)
    AeroDyn14 (unknown version, unknown date) [not called]
    AeroDyn (v15.03.00, 27-Jul-2016)
    ServoDyn (v1.06.00a-bjj, 26-Jul-2016)
    HydroDyn (unknown version, unknown date) [not called]
    SubDyn (unknown version, unknown date) [not called]
    MAP (unknown version, unknown date) [not called]
    FEAMooring (unknown version, unknown date) [not called]
    MoorDyn (unknown version, unknown date) [not called]
    OrcaFlexInterface (unknown version, unknown date) [not called]
    IceFloe (unknown version, unknown date) [not called]
    IceDyn (unknown version, unknown date) [not called]


Modeling a land-based turbine
Description from the FAST input file: 
  Created 22-May-2019 23:24:14.

Interpolation order for input/output time histories: 2 (quadratic)
Number of correction iterations:  1


   Requested Time Steps  
  -------------------------------------------------
  Component          Time Step (s)    Subcycles (-)
  -----------------  ---------------  -------------
  FAST (glue code)    8.000E-03
  InflowWind          8.000E-03              1
  ElastoDyn           8.000E-03              1
  AeroDyn             8.000E-03              1
  ServoDyn            8.000E-03              1
  FAST output files   8.000E-03              1


   Requested Channels in FAST Output File(s)  
  --------------------------------------------
  Number  Name        Units       Generated by
  ------  ----------  ----------  ------------
       1  Time        (s)         FAST
       2  Wind1VelX   (m/s)       InflowWind
       3  Wind1VelY   (m/s)       InflowWind
       4  Wind1VelZ   (m/s)       InflowWind
       5  OoPDefl1    (m)         ElastoDyn
       6  OoPDefl2    (m)         ElastoDyn
       7  OoPDefl3    (m)         ElastoDyn
       8  IPDefl1     (m)         ElastoDyn
       9  IPDefl2     (m)         ElastoDyn
      10  IPDefl3     (m)         ElastoDyn
      11  NcIMUTAxs   (m/s^2)     ElastoDyn
      12  NcIMUTAys   (m/s^2)     ElastoDyn
      13  NcIMUTAzs   (m/s^2)     ElastoDyn
      14  RootMOoP1   (kN·m)      ElastoDyn
      15  RootMOoP2   (kN·m)      ElastoDyn
      16  RootMOoP3   (kN·m)      ElastoDyn
      17  RootMIP1    (kN·m)      ElastoDyn
      18  RootMIP2    (kN·m)      ElastoDyn
      19  RootMIP3    (kN·m)      ElastoDyn
      20  RootMFlp1   (kN·m)      ElastoDyn
      21  RootMFlp2   (kN·m)      ElastoDyn
      22  RootMFlp3   (kN·m)      ElastoDyn
      23  RootMEdg1   (kN·m)      ElastoDyn
      24  RootMEdg2   (kN·m)      ElastoDyn
      25  RootMEdg3   (kN·m)      ElastoDyn
      26  TwrBsMxt    (kN·m)      ElastoDyn
      27  TwrBsMyt    (kN·m)      ElastoDyn
      28  TwrBsMzt    (kN·m)      ElastoDyn
      29  LSSTipMya   (kN·m)      ElastoDyn
      30  LSSTipMza   (kN·m)      ElastoDyn
      31  LSSTipVxa   (rpm)       ElastoDyn
      32  GenSpeed    (rpm)       ElastoDyn
      33  BlPitch1    (deg)       ElastoDyn
      34  Azimuth     (deg)       ElastoDyn
      35  RotPwr      (kW)        ElastoDyn
      36  RotThrust   (kN)        ElastoDyn
      37  RotSpeed    (rpm)       ElastoDyn
      38  HSShftTq    (kN·m)      ElastoDyn
      39  Spn1MLxb1   (kN·m)      ElastoDyn
      40  Spn1MLyb1   (kN·m)      ElastoDyn
      41  Spn2MLxb1   (kN·m)      ElastoDyn
      42  Spn2MLyb1   (kN·m)      ElastoDyn
      43  Spn3MLxb1   (kN·m)      ElastoDyn
      44  Spn3MLyb1   (kN·m)      ElastoDyn
      45  Spn4MLxb1   (kN·m)      ElastoDyn
      46  Spn4MLyb1   (kN·m)      ElastoDyn
      47  Spn5MLxb1   (kN·m)      ElastoDyn
      48  Spn5MLyb1   (kN·m)      ElastoDyn
      49  GenPwr      (kW)        ServoDyn
      50  GenTq       (kN·m)      ServoDyn
